LAMMPS data file via write_data, version 30 Jul 2016, timestep = 0
1200 atoms
2 atom types

0.0 15.382998 xlo xhi
0.0 26.644134 ylo yhi
0.0 30.144397 zlo zhi
0.0 0.0 0.0 xy xz yz

Masses

1 28.0855
2 12.0107

Atoms

1 1 0.000000 0.000000 0.000000 0.000000
2 1 0.000000 1.538300 2.664413 0.000000
3 1 0.000000 0.000000 1.776276 2.512033
4 1 0.000000 1.538300 4.440689 2.512033
5 1 0.000000 0.000000 0.000000 5.024066
6 1 0.000000 1.538300 2.664413 5.024066
7 1 0.000000 0.000000 3.552551 7.536099
8 1 0.000000 1.538300 0.888138 7.536099
9 1 0.000000 0.000000 0.000000 10.048132
10 1 0.000000 1.538300 2.664413 10.048132
11 1 0.000000 0.000000 1.776276 12.560165
12 1 0.000000 1.538300 4.440689 12.560165
13 1 0.000000 0.000000 0.000000 15.072199
14 1 0.000000 1.538300 2.664413 15.072199
15 1 0.000000 0.000000 3.552551 17.584232
16 1 0.000000 1.538300 0.888138 17.584232
17 1 0.000000 0.000000 0.000000 20.096265
18 1 0.000000 1.538300 2.664413 20.096265
19 1 0.000000 0.000000 1.776276 22.608298
20 1 0.000000 1.538300 4.440689 22.608298
21 1 0.000000 0.000000 0.000000 25.120331
22 1 0.000000 1.538300 2.664413 25.120331
23 1 0.000000 0.000000 3.552551 27.632364
24 1 0.000000 1.538300 0.888138 27.632364
25 1 0.000000 0.000000 5.328827 0.000000
26 1 0.000000 1.538300 7.993240 0.000000
27 1 0.000000 0.000000 7.105103 2.512033
28 1 0.000000 1.538300 9.769516 2.512033
29 1 0.000000 0.000000 5.328827 5.024066
30 1 0.000000 1.538300 7.993240 5.024066
31 1 0.000000 0.000000 8.881378 7.536099
32 1 0.000000 1.538300 6.216965 7.536099
33 1 0.000000 0.000000 5.328827 10.048132
34 1 0.000000 1.538300 7.993240 10.048132
35 1 0.000000 0.000000 7.105103 12.560165
36 1 0.000000 1.538300 9.769516 12.560165
37 1 0.000000 0.000000 5.328827 15.072199
38 1 0.000000 1.538300 7.993240 15.072199
39 1 0.000000 0.000000 8.881378 17.584232
40 1 0.000000 1.538300 6.216965 17.584232
41 1 0.000000 0.000000 5.328827 20.096265
42 1 0.000000 1.538300 7.993240 20.096265
43 1 0.000000 0.000000 7.105103 22.608298
44 1 0.000000 1.538300 9.769516 22.608298
45 1 0.000000 0.000000 5.328827 25.120331
46 1 0.000000 1.538300 7.993240 25.120331
47 1 0.000000 0.000000 8.881378 27.632364
48 1 0.000000 1.538300 6.216965 27.632364
49 1 0.000000 0.000000 10.657654 0.000000
50 1 0.000000 1.538300 13.322067 0.000000
51 1 0.000000 0.000000 12.433929 2.512033
52 1 0.000000 1.538300 15.098343 2.512033
53 1 0.000000 0.000000 10.657654 5.024066
54 1 0.000000 1.538300 13.322067 5.024066
55 1 0.000000 0.000000 14.210205 7.536099
56 1 0.000000 1.538300 11.545792 7.536099
57 1 0.000000 0.000000 10.657654 10.048132
58 1 0.000000 1.538300 13.322067 10.048132
59 1 0.000000 0.000000 12.433929 12.560165
60 1 0.000000 1.538300 15.098343 12.560165
61 1 0.000000 0.000000 10.657654 15.072199
62 1 0.000000 1.538300 13.322067 15.072199
63 1 0.000000 0.000000 14.210205 17.584232
64 1 0.000000 1.538300 11.545792 17.584232
65 1 0.000000 0.000000 10.657654 20.096265
66 1 0.000000 1.538300 13.322067 20.096265
67 1 0.000000 0.000000 12.433929 22.608298
68 1 0.000000 1.538300 15.098343 22.608298
69 1 0.000000 0.000000 10.657654 25.120331
70 1 0.000000 1.538300 13.322067 25.120331
71 1 0.000000 0.000000 14.210205 27.632364
72 1 0.000000 1.538300 11.545792 27.632364
73 1 0.000000 0.000000 15.986481 0.000000
74 1 0.000000 1.538300 18.650894 0.000000
75 1 0.000000 0.000000 17.762756 2.512033
76 1 0.000000 1.538300 20.427170 2.512033
77 1 0.000000 0.000000 15.986481 5.024066
78 1 0.000000 1.538300 18.650894 5.024066
79 1 0.000000 0.000000 19.539032 7.536099
80 1 0.000000 1.538300 16.874618 7.536099
81 1 0.000000 0.000000 15.986481 10.048132
82 1 0.000000 1.538300 18.650894 10.048132
83 1 0.000000 0.000000 17.762756 12.560165
84 1 0.000000 1.538300 20.427170 12.560165
85 1 0.000000 0.000000 15.986481 15.072199
86 1 0.000000 1.538300 18.650894 15.072199
87 1 0.000000 0.000000 19.539032 17.584232
88 1 0.000000 1.538300 16.874618 17.584232
89 1 0.000000 0.000000 15.986481 20.096265
90 1 0.000000 1.538300 18.650894 20.096265
91 1 0.000000 0.000000 17.762756 22.608298
92 1 0.000000 1.538300 20.427170 22.608298
93 1 0.000000 0.000000 15.986481 25.120331
94 1 0.000000 1.538300 18.650894 25.120331
95 1 0.000000 0.000000 19.539032 27.632364
96 1 0.000000 1.538300 16.874618 27.632364
97 1 0.000000 0.000000 21.315308 0.000000
98 1 0.000000 1.538300 23.979721 0.000000
99 1 0.000000 0.000000 23.091583 2.512033
100 1 0.000000 1.538300 25.755997 2.512033
101 1 0.000000 0.000000 21.315308 5.024066
102 1 0.000000 1.538300 23.979721 5.024066
103 1 0.000000 0.000000 24.867859 7.536099
104 1 0.000000 1.538300 22.203445 7.536099
105 1 0.000000 0.000000 21.315308 10.048132
106 1 0.000000 1.538300 23.979721 10.048132
107 1 0.000000 0.000000 23.091583 12.560165
108 1 0.000000 1.538300 25.755997 12.560165
109 1 0.000000 0.000000 21.315308 15.072199
110 1 0.000000 1.538300 23.979721 15.072199
111 1 0.000000 0.000000 24.867859 17.584232
112 1 0.000000 1.538300 22.203445 17.584232
113 1 0.000000 0.000000 21.315308 20.096265
114 1 0.000000 1.538300 23.979721 20.096265
115 1 0.000000 0.000000 23.091583 22.608298
116 1 0.000000 1.538300 25.755997 22.608298
117 1 0.000000 0.000000 21.315308 25.120331
118 1 0.000000 1.538300 23.979721 25.120331
119 1 0.000000 0.000000 24.867859 27.632364
120 1 0.000000 1.538300 22.203445 27.632364
121 1 0.000000 3.076600 0.000000 0.000000
122 1 0.000000 4.614899 2.664413 0.000000
123 1 0.000000 3.076600 1.776276 2.512033
124 1 0.000000 4.614899 4.440689 2.512033
125 1 0.000000 3.076600 0.000000 5.024066
126 1 0.000000 4.614899 2.664413 5.024066
127 1 0.000000 3.076600 3.552551 7.536099
128 1 0.000000 4.614899 0.888138 7.536099
129 1 0.000000 3.076600 0.000000 10.048132
130 1 0.000000 4.614899 2.664413 10.048132
131 1 0.000000 3.076600 1.776276 12.560165
132 1 0.000000 4.614899 4.440689 12.560165
133 1 0.000000 3.076600 0.000000 15.072199
134 1 0.000000 4.614899 2.664413 15.072199
135 1 0.000000 3.076600 3.552551 17.584232
136 1 0.000000 4.614899 0.888138 17.584232
137 1 0.000000 3.076600 0.000000 20.096265
138 1 0.000000 4.614899 2.664413 20.096265
139 1 0.000000 3.076600 1.776276 22.608298
140 1 0.000000 4.614899 4.440689 22.608298
141 1 0.000000 3.076600 0.000000 25.120331
142 1 0.000000 4.614899 2.664413 25.120331
143 1 0.000000 3.076600 3.552551 27.632364
144 1 0.000000 4.614899 0.888138 27.632364
145 1 0.000000 3.076600 5.328827 0.000000
146 1 0.000000 4.614899 7.993240 0.000000
147 1 0.000000 3.076600 7.105103 2.512033
148 1 0.000000 4.614899 9.769516 2.512033
149 1 0.000000 3.076600 5.328827 5.024066
150 1 0.000000 4.614899 7.993240 5.024066
151 1 0.000000 3.076600 8.881378 7.536099
152 1 0.000000 4.614899 6.216965 7.536099
153 1 0.000000 3.076600 5.328827 10.048132
154 1 0.000000 4.614899 7.993240 10.048132
155 1 0.000000 3.076600 7.105103 12.560165
156 1 0.000000 4.614899 9.769516 12.560165
157 1 0.000000 3.076600 5.328827 15.072199
158 1 0.000000 4.614899 7.993240 15.072199
159 1 0.000000 3.076600 8.881378 17.584232
160 1 0.000000 4.614899 6.216965 17.584232
161 1 0.000000 3.076600 5.328827 20.096265
162 1 0.000000 4.614899 7.993240 20.096265
163 1 0.000000 3.076600 7.105103 22.608298
164 1 0.000000 4.614899 9.769516 22.608298
165 1 0.000000 3.076600 5.328827 25.120331
166 1 0.000000 4.614899 7.993240 25.120331
167 1 0.000000 3.076600 8.881378 27.632364
168 1 0.000000 4.614899 6.216965 27.632364
169 1 0.000000 3.076600 10.657654 0.000000
170 1 0.000000 4.614899 13.322067 0.000000
171 1 0.000000 3.076600 12.433929 2.512033
172 1 0.000000 4.614899 15.098343 2.512033
173 1 0.000000 3.076600 10.657654 5.024066
174 1 0.000000 4.614899 13.322067 5.024066
175 1 0.000000 3.076600 14.210205 7.536099
176 1 0.000000 4.614899 11.545792 7.536099
177 1 0.000000 3.076600 10.657654 10.048132
178 1 0.000000 4.614899 13.322067 10.048132
179 1 0.000000 3.076600 12.433929 12.560165
180 1 0.000000 4.614899 15.098343 12.560165
181 1 0.000000 3.076600 10.657654 15.072199
182 1 0.000000 4.614899 13.322067 15.072199
183 1 0.000000 3.076600 14.210205 17.584232
184 1 0.000000 4.614899 11.545792 17.584232
185 1 0.000000 3.076600 10.657654 20.096265
186 1 0.000000 4.614899 13.322067 20.096265
187 1 0.000000 3.076600 12.433929 22.608298
188 1 0.000000 4.614899 15.098343 22.608298
189 1 0.000000 3.076600 10.657654 25.120331
190 1 0.000000 4.614899 13.322067 25.120331
191 1 0.000000 3.076600 14.210205 27.632364
192 1 0.000000 4.614899 11.545792 27.632364
193 1 0.000000 3.076600 15.986481 0.000000
194 1 0.000000 4.614899 18.650894 0.000000
195 1 0.000000 3.076600 17.762756 2.512033
196 1 0.000000 4.614899 20.427170 2.512033
197 1 0.000000 3.076600 15.986481 5.024066
198 1 0.000000 4.614899 18.650894 5.024066
199 1 0.000000 3.076600 19.539032 7.536099
200 1 0.000000 4.614899 16.874618 7.536099
201 1 0.000000 3.076600 15.986481 10.048132
202 1 0.000000 4.614899 18.650894 10.048132
203 1 0.000000 3.076600 17.762756 12.560165
204 1 0.000000 4.614899 20.427170 12.560165
205 1 0.000000 3.076600 15.986481 15.072199
206 1 0.000000 4.614899 18.650894 15.072199
207 1 0.000000 3.076600 19.539032 17.584232
208 1 0.000000 4.614899 16.874618 17.584232
209 1 0.000000 3.076600 15.986481 20.096265
210 1 0.000000 4.614899 18.650894 20.096265
211 1 0.000000 3.076600 17.762756 22.608298
212 1 0.000000 4.614899 20.427170 22.608298
213 1 0.000000 3.076600 15.986481 25.120331
214 1 0.000000 4.614899 18.650894 25.120331
215 1 0.000000 3.076600 19.539032 27.632364
216 1 0.000000 4.614899 16.874618 27.632364
217 1 0.000000 3.076600 21.315308 0.000000
218 1 0.000000 4.614899 23.979721 0.000000
219 1 0.000000 3.076600 23.091583 2.512033
220 1 0.000000 4.614899 25.755997 2.512033
221 1 0.000000 3.076600 21.315308 5.024066
222 1 0.000000 4.614899 23.979721 5.024066
223 1 0.000000 3.076600 24.867859 7.536099
224 1 0.000000 4.614899 22.203445 7.536099
225 1 0.000000 3.076600 21.315308 10.048132
226 1 0.000000 4.614899 23.979721 10.048132
227 1 0.000000 3.076600 23.091583 12.560165
228 1 0.000000 4.614899 25.755997 12.560165
229 1 0.000000 3.076600 21.315308 15.072199
230 1 0.000000 4.614899 23.979721 15.072199
231 1 0.000000 3.076600 24.867859 17.584232
232 1 0.000000 4.614899 22.203445 17.584232
233 1 0.000000 3.076600 21.315308 20.096265
234 1 0.000000 4.614899 23.979721 20.096265
235 1 0.000000 3.076600 23.091583 22.608298
236 1 0.000000 4.614899 25.755997 22.608298
237 1 0.000000 3.076600 21.315308 25.120331
238 1 0.000000 4.614899 23.979721 25.120331
239 1 0.000000 3.076600 24.867859 27.632364
240 1 0.000000 4.614899 22.203445 27.632364
241 1 0.000000 6.153199 0.000000 0.000000
242 1 0.000000 7.691499 2.664413 0.000000
243 1 0.000000 6.153199 1.776276 2.512033
244 1 0.000000 7.691499 4.440689 2.512033
245 1 0.000000 6.153199 0.000000 5.024066
246 1 0.000000 7.691499 2.664413 5.024066
247 1 0.000000 6.153199 3.552551 7.536099
248 1 0.000000 7.691499 0.888138 7.536099
249 1 0.000000 6.153199 0.000000 10.048132
250 1 0.000000 7.691499 2.664413 10.048132
251 1 0.000000 6.153199 1.776276 12.560165
252 1 0.000000 7.691499 4.440689 12.560165
253 1 0.000000 6.153199 0.000000 15.072199
254 1 0.000000 7.691499 2.664413 15.072199
255 1 0.000000 6.153199 3.552551 17.584232
256 1 0.000000 7.691499 0.888138 17.584232
257 1 0.000000 6.153199 0.000000 20.096265
258 1 0.000000 7.691499 2.664413 20.096265
259 1 0.000000 6.153199 1.776276 22.608298
260 1 0.000000 7.691499 4.440689 22.608298
261 1 0.000000 6.153199 0.000000 25.120331
262 1 0.000000 7.691499 2.664413 25.120331
263 1 0.000000 6.153199 3.552551 27.632364
264 1 0.000000 7.691499 0.888138 27.632364
265 1 0.000000 6.153199 5.328827 0.000000
266 1 0.000000 7.691499 7.993240 0.000000
267 1 0.000000 6.153199 7.105103 2.512033
268 1 0.000000 7.691499 9.769516 2.512033
269 1 0.000000 6.153199 5.328827 5.024066
270 1 0.000000 7.691499 7.993240 5.024066
271 1 0.000000 6.153199 8.881378 7.536099
272 1 0.000000 7.691499 6.216965 7.536099
273 1 0.000000 6.153199 5.328827 10.048132
274 1 0.000000 7.691499 7.993240 10.048132
275 1 0.000000 6.153199 7.105103 12.560165
276 1 0.000000 7.691499 9.769516 12.560165
277 1 0.000000 6.153199 5.328827 15.072199
278 1 0.000000 7.691499 7.993240 15.072199
279 1 0.000000 6.153199 8.881378 17.584232
280 1 0.000000 7.691499 6.216965 17.584232
281 1 0.000000 6.153199 5.328827 20.096265
282 1 0.000000 7.691499 7.993240 20.096265
283 1 0.000000 6.153199 7.105103 22.608298
284 1 0.000000 7.691499 9.769516 22.608298
285 1 0.000000 6.153199 5.328827 25.120331
286 1 0.000000 7.691499 7.993240 25.120331
287 1 0.000000 6.153199 8.881378 27.632364
288 1 0.000000 7.691499 6.216965 27.632364
289 1 0.000000 6.153199 10.657654 0.000000
290 1 0.000000 7.691499 13.322067 0.000000
291 1 0.000000 6.153199 12.433929 2.512033
292 1 0.000000 7.691499 15.098343 2.512033
293 1 0.000000 6.153199 10.657654 5.024066
294 1 0.000000 7.691499 13.322067 5.024066
295 1 0.000000 6.153199 14.210205 7.536099
296 1 0.000000 7.691499 11.545792 7.536099
297 1 0.000000 6.153199 10.657654 10.048132
298 1 0.000000 7.691499 13.322067 10.048132
299 1 0.000000 6.153199 12.433929 12.560165
300 1 0.000000 7.691499 15.098343 12.560165
301 1 0.000000 6.153199 10.657654 15.072199
302 1 0.000000 7.691499 13.322067 15.072199
303 1 0.000000 6.153199 14.210205 17.584232
304 1 0.000000 7.691499 11.545792 17.584232
305 1 0.000000 6.153199 10.657654 20.096265
306 1 0.000000 7.691499 13.322067 20.096265
307 1 0.000000 6.153199 12.433929 22.608298
308 1 0.000000 7.691499 15.098343 22.608298
309 1 0.000000 6.153199 10.657654 25.120331
310 1 0.000000 7.691499 13.322067 25.120331
311 1 0.000000 6.153199 14.210205 27.632364
312 1 0.000000 7.691499 11.545792 27.632364
313 1 0.000000 6.153199 15.986481 0.000000
314 1 0.000000 7.691499 18.650894 0.000000
315 1 0.000000 6.153199 17.762756 2.512033
316 1 0.000000 7.691499 20.427170 2.512033
317 1 0.000000 6.153199 15.986481 5.024066
318 1 0.000000 7.691499 18.650894 5.024066
319 1 0.000000 6.153199 19.539032 7.536099
320 1 0.000000 7.691499 16.874618 7.536099
321 1 0.000000 6.153199 15.986481 10.048132
322 1 0.000000 7.691499 18.650894 10.048132
323 1 0.000000 6.153199 17.762756 12.560165
324 1 0.000000 7.691499 20.427170 12.560165
325 1 0.000000 6.153199 15.986481 15.072199
326 1 0.000000 7.691499 18.650894 15.072199
327 1 0.000000 6.153199 19.539032 17.584232
328 1 0.000000 7.691499 16.874618 17.584232
329 1 0.000000 6.153199 15.986481 20.096265
330 1 0.000000 7.691499 18.650894 20.096265
331 1 0.000000 6.153199 17.762756 22.608298
332 1 0.000000 7.691499 20.427170 22.608298
333 1 0.000000 6.153199 15.986481 25.120331
334 1 0.000000 7.691499 18.650894 25.120331
335 1 0.000000 6.153199 19.539032 27.632364
336 1 0.000000 7.691499 16.874618 27.632364
337 1 0.000000 6.153199 21.315308 0.000000
338 1 0.000000 7.691499 23.979721 0.000000
339 1 0.000000 6.153199 23.091583 2.512033
340 1 0.000000 7.691499 25.755997 2.512033
341 1 0.000000 6.153199 21.315308 5.024066
342 1 0.000000 7.691499 23.979721 5.024066
343 1 0.000000 6.153199 24.867859 7.536099
344 1 0.000000 7.691499 22.203445 7.536099
345 1 0.000000 6.153199 21.315308 10.048132
346 1 0.000000 7.691499 23.979721 10.048132
347 1 0.000000 6.153199 23.091583 12.560165
348 1 0.000000 7.691499 25.755997 12.560165
349 1 0.000000 6.153199 21.315308 15.072199
350 1 0.000000 7.691499 23.979721 15.072199
351 1 0.000000 6.153199 24.867859 17.584232
352 1 0.000000 7.691499 22.203445 17.584232
353 1 0.000000 6.153199 21.315308 20.096265
354 1 0.000000 7.691499 23.979721 20.096265
355 1 0.000000 6.153199 23.091583 22.608298
356 1 0.000000 7.691499 25.755997 22.608298
357 1 0.000000 6.153199 21.315308 25.120331
358 1 0.000000 7.691499 23.979721 25.120331
359 1 0.000000 6.153199 24.867859 27.632364
360 1 0.000000 7.691499 22.203445 27.632364
361 1 0.000000 9.229799 0.000000 0.000000
362 1 0.000000 10.768099 2.664413 0.000000
363 1 0.000000 9.229799 1.776276 2.512033
364 1 0.000000 10.768099 4.440689 2.512033
365 1 0.000000 9.229799 0.000000 5.024066
366 1 0.000000 10.768099 2.664413 5.024066
367 1 0.000000 9.229799 3.552551 7.536099
368 1 0.000000 10.768099 0.888138 7.536099
369 1 0.000000 9.229799 0.000000 10.048132
370 1 0.000000 10.768099 2.664413 10.048132
371 1 0.000000 9.229799 1.776276 12.560165
372 1 0.000000 10.768099 4.440689 12.560165
373 1 0.000000 9.229799 0.000000 15.072199
374 1 0.000000 10.768099 2.664413 15.072199
375 1 0.000000 9.229799 3.552551 17.584232
376 1 0.000000 10.768099 0.888138 17.584232
377 1 0.000000 9.229799 0.000000 20.096265
378 1 0.000000 10.768099 2.664413 20.096265
379 1 0.000000 9.229799 1.776276 22.608298
380 1 0.000000 10.768099 4.440689 22.608298
381 1 0.000000 9.229799 0.000000 25.120331
382 1 0.000000 10.768099 2.664413 25.120331
383 1 0.000000 9.229799 3.552551 27.632364
384 1 0.000000 10.768099 0.888138 27.632364
385 1 0.000000 9.229799 5.328827 0.000000
386 1 0.000000 10.768099 7.993240 0.000000
387 1 0.000000 9.229799 7.105103 2.512033
388 1 0.000000 10.768099 9.769516 2.512033
389 1 0.000000 9.229799 5.328827 5.024066
390 1 0.000000 10.768099 7.993240 5.024066
391 1 0.000000 9.229799 8.881378 7.536099
392 1 0.000000 10.768099 6.216965 7.536099
393 1 0.000000 9.229799 5.328827 10.048132
394 1 0.000000 10.768099 7.993240 10.048132
395 1 0.000000 9.229799 7.105103 12.560165
396 1 0.000000 10.768099 9.769516 12.560165
397 1 0.000000 9.229799 5.328827 15.072199
398 1 0.000000 10.768099 7.993240 15.072199
399 1 0.000000 9.229799 8.881378 17.584232
400 1 0.000000 10.768099 6.216965 17.584232
401 1 0.000000 9.229799 5.328827 20.096265
402 1 0.000000 10.768099 7.993240 20.096265
403 1 0.000000 9.229799 7.105103 22.608298
404 1 0.000000 10.768099 9.769516 22.608298
405 1 0.000000 9.229799 5.328827 25.120331
406 1 0.000000 10.768099 7.993240 25.120331
407 1 0.000000 9.229799 8.881378 27.632364
408 1 0.000000 10.768099 6.216965 27.632364
409 1 0.000000 9.229799 10.657654 0.000000
410 1 0.000000 10.768099 13.322067 0.000000
411 1 0.000000 9.229799 12.433929 2.512033
412 1 0.000000 10.768099 15.098343 2.512033
413 1 0.000000 9.229799 10.657654 5.024066
414 1 0.000000 10.768099 13.322067 5.024066
415 1 0.000000 9.229799 14.210205 7.536099
416 1 0.000000 10.768099 11.545792 7.536099
417 1 0.000000 9.229799 10.657654 10.048132
418 1 0.000000 10.768099 13.322067 10.048132
419 1 0.000000 9.229799 12.433929 12.560165
420 1 0.000000 10.768099 15.098343 12.560165
421 1 0.000000 9.229799 10.657654 15.072199
422 1 0.000000 10.768099 13.322067 15.072199
423 1 0.000000 9.229799 14.210205 17.584232
424 1 0.000000 10.768099 11.545792 17.584232
425 1 0.000000 9.229799 10.657654 20.096265
426 1 0.000000 10.768099 13.322067 20.096265
427 1 0.000000 9.229799 12.433929 22.608298
428 1 0.000000 10.768099 15.098343 22.608298
429 1 0.000000 9.229799 10.657654 25.120331
430 1 0.000000 10.768099 13.322067 25.120331
431 1 0.000000 9.229799 14.210205 27.632364
432 1 0.000000 10.768099 11.545792 27.632364
433 1 0.000000 9.229799 15.986481 0.000000
434 1 0.000000 10.768099 18.650894 0.000000
435 1 0.000000 9.229799 17.762756 2.512033
436 1 0.000000 10.768099 20.427170 2.512033
437 1 0.000000 9.229799 15.986481 5.024066
438 1 0.000000 10.768099 18.650894 5.024066
439 1 0.000000 9.229799 19.539032 7.536099
440 1 0.000000 10.768099 16.874618 7.536099
441 1 0.000000 9.229799 15.986481 10.048132
442 1 0.000000 10.768099 18.650894 10.048132
443 1 0.000000 9.229799 17.762756 12.560165
444 1 0.000000 10.768099 20.427170 12.560165
445 1 0.000000 9.229799 15.986481 15.072199
446 1 0.000000 10.768099 18.650894 15.072199
447 1 0.000000 9.229799 19.539032 17.584232
448 1 0.000000 10.768099 16.874618 17.584232
449 1 0.000000 9.229799 15.986481 20.096265
450 1 0.000000 10.768099 18.650894 20.096265
451 1 0.000000 9.229799 17.762756 22.608298
452 1 0.000000 10.768099 20.427170 22.608298
453 1 0.000000 9.229799 15.986481 25.120331
454 1 0.000000 10.768099 18.650894 25.120331
455 1 0.000000 9.229799 19.539032 27.632364
456 1 0.000000 10.768099 16.874618 27.632364
457 1 0.000000 9.229799 21.315308 0.000000
458 1 0.000000 10.768099 23.979721 0.000000
459 1 0.000000 9.229799 23.091583 2.512033
460 1 0.000000 10.768099 25.755997 2.512033
461 1 0.000000 9.229799 21.315308 5.024066
462 1 0.000000 10.768099 23.979721 5.024066
463 1 0.000000 9.229799 24.867859 7.536099
464 1 0.000000 10.768099 22.203445 7.536099
465 1 0.000000 9.229799 21.315308 10.048132
466 1 0.000000 10.768099 23.979721 10.048132
467 1 0.000000 9.229799 23.091583 12.560165
468 1 0.000000 10.768099 25.755997 12.560165
469 1 0.000000 9.229799 21.315308 15.072199
470 1 0.000000 10.768099 23.979721 15.072199
471 1 0.000000 9.229799 24.867859 17.584232
472 1 0.000000 10.768099 22.203445 17.584232
473 1 0.000000 9.229799 21.315308 20.096265
474 1 0.000000 10.768099 23.979721 20.096265
475 1 0.000000 9.229799 23.091583 22.608298
476 1 0.000000 10.768099 25.755997 22.608298
477 1 0.000000 9.229799 21.315308 25.120331
478 1 0.000000 10.768099 23.979721 25.120331
479 1 0.000000 9.229799 24.867859 27.632364
480 1 0.000000 10.768099 22.203445 27.632364
481 1 0.000000 12.306399 0.000000 0.000000
482 1 0.000000 13.844698 2.664413 0.000000
483 1 0.000000 12.306399 1.776276 2.512033
484 1 0.000000 13.844698 4.440689 2.512033
485 1 0.000000 12.306399 0.000000 5.024066
486 1 0.000000 13.844698 2.664413 5.024066
487 1 0.000000 12.306399 3.552551 7.536099
488 1 0.000000 13.844698 0.888138 7.536099
489 1 0.000000 12.306399 0.000000 10.048132
490 1 0.000000 13.844698 2.664413 10.048132
491 1 0.000000 12.306399 1.776276 12.560165
492 1 0.000000 13.844698 4.440689 12.560165
493 1 0.000000 12.306399 0.000000 15.072199
494 1 0.000000 13.844698 2.664413 15.072199
495 1 0.000000 12.306399 3.552551 17.584232
496 1 0.000000 13.844698 0.888138 17.584232
497 1 0.000000 12.306399 0.000000 20.096265
498 1 0.000000 13.844698 2.664413 20.096265
499 1 0.000000 12.306399 1.776276 22.608298
500 1 0.000000 13.844698 4.440689 22.608298
501 1 0.000000 12.306399 0.000000 25.120331
502 1 0.000000 13.844698 2.664413 25.120331
503 1 0.000000 12.306399 3.552551 27.632364
504 1 0.000000 13.844698 0.888138 27.632364
505 1 0.000000 12.306399 5.328827 0.000000
506 1 0.000000 13.844698 7.993240 0.000000
507 1 0.000000 12.306399 7.105103 2.512033
508 1 0.000000 13.844698 9.769516 2.512033
509 1 0.000000 12.306399 5.328827 5.024066
510 1 0.000000 13.844698 7.993240 5.024066
511 1 0.000000 12.306399 8.881378 7.536099
512 1 0.000000 13.844698 6.216965 7.536099
513 1 0.000000 12.306399 5.328827 10.048132
514 1 0.000000 13.844698 7.993240 10.048132
515 1 0.000000 12.306399 7.105103 12.560165
516 1 0.000000 13.844698 9.769516 12.560165
517 1 0.000000 12.306399 5.328827 15.072199
518 1 0.000000 13.844698 7.993240 15.072199
519 1 0.000000 12.306399 8.881378 17.584232
520 1 0.000000 13.844698 6.216965 17.584232
521 1 0.000000 12.306399 5.328827 20.096265
522 1 0.000000 13.844698 7.993240 20.096265
523 1 0.000000 12.306399 7.105103 22.608298
524 1 0.000000 13.844698 9.769516 22.608298
525 1 0.000000 12.306399 5.328827 25.120331
526 1 0.000000 13.844698 7.993240 25.120331
527 1 0.000000 12.306399 8.881378 27.632364
528 1 0.000000 13.844698 6.216965 27.632364
529 1 0.000000 12.306399 10.657654 0.000000
530 1 0.000000 13.844698 13.322067 0.000000
531 1 0.000000 12.306399 12.433929 2.512033
532 1 0.000000 13.844698 15.098343 2.512033
533 1 0.000000 12.306399 10.657654 5.024066
534 1 0.000000 13.844698 13.322067 5.024066
535 1 0.000000 12.306399 14.210205 7.536099
536 1 0.000000 13.844698 11.545792 7.536099
537 1 0.000000 12.306399 10.657654 10.048132
538 1 0.000000 13.844698 13.322067 10.048132
539 1 0.000000 12.306399 12.433929 12.560165
540 1 0.000000 13.844698 15.098343 12.560165
541 1 0.000000 12.306399 10.657654 15.072199
542 1 0.000000 13.844698 13.322067 15.072199
543 1 0.000000 12.306399 14.210205 17.584232
544 1 0.000000 13.844698 11.545792 17.584232
545 1 0.000000 12.306399 10.657654 20.096265
546 1 0.000000 13.844698 13.322067 20.096265
547 1 0.000000 12.306399 12.433929 22.608298
548 1 0.000000 13.844698 15.098343 22.608298
549 1 0.000000 12.306399 10.657654 25.120331
550 1 0.000000 13.844698 13.322067 25.120331
551 1 0.000000 12.306399 14.210205 27.632364
552 1 0.000000 13.844698 11.545792 27.632364
553 1 0.000000 12.306399 15.986481 0.000000
554 1 0.000000 13.844698 18.650894 0.000000
555 1 0.000000 12.306399 17.762756 2.512033
556 1 0.000000 13.844698 20.427170 2.512033
557 1 0.000000 12.306399 15.986481 5.024066
558 1 0.000000 13.844698 18.650894 5.024066
559 1 0.000000 12.306399 19.539032 7.536099
560 1 0.000000 13.844698 16.874618 7.536099
561 1 0.000000 12.306399 15.986481 10.048132
562 1 0.000000 13.844698 18.650894 10.048132
563 1 0.000000 12.306399 17.762756 12.560165
564 1 0.000000 13.844698 20.427170 12.560165
565 1 0.000000 12.306399 15.986481 15.072199
566 1 0.000000 13.844698 18.650894 15.072199
567 1 0.000000 12.306399 19.539032 17.584232
568 1 0.000000 13.844698 16.874618 17.584232
569 1 0.000000 12.306399 15.986481 20.096265
570 1 0.000000 13.844698 18.650894 20.096265
571 1 0.000000 12.306399 17.762756 22.608298
572 1 0.000000 13.844698 20.427170 22.608298
573 1 0.000000 12.306399 15.986481 25.120331
574 1 0.000000 13.844698 18.650894 25.120331
575 1 0.000000 12.306399 19.539032 27.632364
576 1 0.000000 13.844698 16.874618 27.632364
577 1 0.000000 12.306399 21.315308 0.000000
578 1 0.000000 13.844698 23.979721 0.000000
579 1 0.000000 12.306399 23.091583 2.512033
580 1 0.000000 13.844698 25.755997 2.512033
581 1 0.000000 12.306399 21.315308 5.024066
582 1 0.000000 13.844698 23.979721 5.024066
583 1 0.000000 12.306399 24.867859 7.536099
584 1 0.000000 13.844698 22.203445 7.536099
585 1 0.000000 12.306399 21.315308 10.048132
586 1 0.000000 13.844698 23.979721 10.048132
587 1 0.000000 12.306399 23.091583 12.560165
588 1 0.000000 13.844698 25.755997 12.560165
589 1 0.000000 12.306399 21.315308 15.072199
590 1 0.000000 13.844698 23.979721 15.072199
591 1 0.000000 12.306399 24.867859 17.584232
592 1 0.000000 13.844698 22.203445 17.584232
593 1 0.000000 12.306399 21.315308 20.096265
594 1 0.000000 13.844698 23.979721 20.096265
595 1 0.000000 12.306399 23.091583 22.608298
596 1 0.000000 13.844698 25.755997 22.608298
597 1 0.000000 12.306399 21.315308 25.120331
598 1 0.000000 13.844698 23.979721 25.120331
599 1 0.000000 12.306399 24.867859 27.632364
600 1 0.000000 13.844698 22.203445 27.632364
601 2 0.000000 0.000000 1.776276 0.628008
602 2 0.000000 1.538300 4.440689 0.628008
603 2 0.000000 0.000000 0.000000 3.140041
604 2 0.000000 1.538300 2.664413 3.140041
605 2 0.000000 0.000000 3.552551 5.652074
606 2 0.000000 1.538300 0.888138 5.652074
607 2 0.000000 0.000000 0.000000 8.164108
608 2 0.000000 1.538300 2.664413 8.164108
609 2 0.000000 0.000000 1.776276 10.676141
610 2 0.000000 1.538300 4.440689 10.676141
611 2 0.000000 0.000000 0.000000 13.188174
612 2 0.000000 1.538300 2.664413 13.188174
613 2 0.000000 0.000000 3.552551 15.700207
614 2 0.000000 1.538300 0.888138 15.700207
615 2 0.000000 0.000000 0.000000 18.212240
616 2 0.000000 1.538300 2.664413 18.212240
617 2 0.000000 0.000000 1.776276 20.724273
618 2 0.000000 1.538300 4.440689 20.724273
619 2 0.000000 0.000000 0.000000 23.236306
620 2 0.000000 1.538300 2.664413 23.236306
621 2 0.000000 0.000000 3.552551 25.748339
622 2 0.000000 1.538300 0.888138 25.748339
623 2 0.000000 0.000000 0.000000 28.260372
624 2 0.000000 1.538300 2.664413 28.260372
625 2 0.000000 0.000000 7.105103 0.628008
626 2 0.000000 1.538300 9.769516 0.628008
627 2 0.000000 0.000000 5.328827 3.140041
628 2 0.000000 1.538300 7.993240 3.140041
629 2 0.000000 0.000000 8.881378 5.652074
630 2 0.000000 1.538300 6.216965 5.652074
631 2 0.000000 0.000000 5.328827 8.164108
632 2 0.000000 1.538300 7.993240 8.164108
633 2 0.000000 0.000000 7.105103 10.676141
634 2 0.000000 1.538300 9.769516 10.676141
635 2 0.000000 0.000000 5.328827 13.188174
636 2 0.000000 1.538300 7.993240 13.188174
637 2 0.000000 0.000000 8.881378 15.700207
638 2 0.000000 1.538300 6.216965 15.700207
639 2 0.000000 0.000000 5.328827 18.212240
640 2 0.000000 1.538300 7.993240 18.212240
641 2 0.000000 0.000000 7.105103 20.724273
642 2 0.000000 1.538300 9.769516 20.724273
643 2 0.000000 0.000000 5.328827 23.236306
644 2 0.000000 1.538300 7.993240 23.236306
645 2 0.000000 0.000000 8.881378 25.748339
646 2 0.000000 1.538300 6.216965 25.748339
647 2 0.000000 0.000000 5.328827 28.260372
648 2 0.000000 1.538300 7.993240 28.260372
649 2 0.000000 0.000000 12.433929 0.628008
650 2 0.000000 1.538300 15.098343 0.628008
651 2 0.000000 0.000000 10.657654 3.140041
652 2 0.000000 1.538300 13.322067 3.140041
653 2 0.000000 0.000000 14.210205 5.652074
654 2 0.000000 1.538300 11.545792 5.652074
655 2 0.000000 0.000000 10.657654 8.164108
656 2 0.000000 1.538300 13.322067 8.164108
657 2 0.000000 0.000000 12.433929 10.676141
658 2 0.000000 1.538300 15.098343 10.676141
659 2 0.000000 0.000000 10.657654 13.188174
660 2 0.000000 1.538300 13.322067 13.188174
661 2 0.000000 0.000000 14.210205 15.700207
662 2 0.000000 1.538300 11.545792 15.700207
663 2 0.000000 0.000000 10.657654 18.212240
664 2 0.000000 1.538300 13.322067 18.212240
665 2 0.000000 0.000000 12.433929 20.724273
666 2 0.000000 1.538300 15.098343 20.724273
667 2 0.000000 0.000000 10.657654 23.236306
668 2 0.000000 1.538300 13.322067 23.236306
669 2 0.000000 0.000000 14.210205 25.748339
670 2 0.000000 1.538300 11.545792 25.748339
671 2 0.000000 0.000000 10.657654 28.260372
672 2 0.000000 1.538300 13.322067 28.260372
673 2 0.000000 0.000000 17.762756 0.628008
674 2 0.000000 1.538300 20.427170 0.628008
675 2 0.000000 0.000000 15.986481 3.140041
676 2 0.000000 1.538300 18.650894 3.140041
677 2 0.000000 0.000000 19.539032 5.652074
678 2 0.000000 1.538300 16.874618 5.652074
679 2 0.000000 0.000000 15.986481 8.164108
680 2 0.000000 1.538300 18.650894 8.164108
681 2 0.000000 0.000000 17.762756 10.676141
682 2 0.000000 1.538300 20.427170 10.676141
683 2 0.000000 0.000000 15.986481 13.188174
684 2 0.000000 1.538300 18.650894 13.188174
685 2 0.000000 0.000000 19.539032 15.700207
686 2 0.000000 1.538300 16.874618 15.700207
687 2 0.000000 0.000000 15.986481 18.212240