3359
Properties=species:S:1:pos:R:3:VonMises_GPa:R:1:Stress_Tensor_GPa:R:6 Lattice="30.7659964 0.0 0.0 0.0 37.30178823 0.0 0.0 0.0 30.14439708" Origin="0.0 0.0 0.0"
Si 1.53827 2.66434 0.00231 7.49520 -3.51173e+01 -3.51186e+01 -2.76228e+01 -2.23543e-03 -7.09984e-04 -2.05136e-03
Si 0.00000 1.77622 2.51121 0.89222 -3.17536e+01 -3.17544e+01 -3.26462e+01 -1.40855e-09 -3.48828e-09 2.80690e-05
Si 1.53824 4.44056 2.51120 0.89091 -3.17574e+01 -3.17519e+01 -3.26455e+01 -3.84900e-03 -7.04411e-04 -9.45221e-04
Si 0.00000 0.00003 5.02644 7.50616 -3.51211e+01 -3.51264e+01 -2.76176e+01 -2.17685e-09 1.21833e-09 2.41302e-03
Si 1.53826 2.66435 5.02644 7.50579 -3.51226e+01 -3.51226e+01 -2.76168e+01 -3.22911e-03 2.99347e-04 2.08574e-03
Si 0.00000 3.55254 7.53534 0.90131 -3.17447e+01 -3.17424e+01 -3.26449e+01 7.13869e-10 3.17540e-09 3.27030e-03
Si 1.53827 0.88817 7.53535 0.89868 -3.17450e+01 -3.17460e+01 -3.26441e+01 -2.42401e-03 4.95458e-04 3.32184e-03
Si 0.00000 5.32871 0.00230 7.49471 -3.51194e+01 -3.51151e+01 -2.76226e+01 -2.11786e-09 1.69200e-09 -2.49405e-03
Si 0.00000 5.32873 5.02643 7.50432 -3.51237e+01 -3.51188e+01 -2.76170e+01 1.53151e-09 1.03120e-09 2.27632e-03
Si 4.61481 2.66428 0.00230 7.49349 -3.51156e+01 -3.51210e+01 -2.76248e+01 -6.80896e-03 -2.84142e-03 -3.61186e-03
Si 3.07651 1.77619 2.51120 0.89202 -3.17536e+01 -3.17562e+01 -3.26468e+01 -6.51020e-03 -2.13980e-03 -8.75169e-04
Si 4.61473 4.44048 2.51118 0.89226 -3.17583e+01 -3.17549e+01 -3.26485e+01 -1.26609e-02 -4.14053e-03 -3.33955e-03
Si 4.61477 2.66425 5.02643 7.51016 -3.51256e+01 -3.51266e+01 -2.76160e+01 -1.34301e-02 -9.74613e-04 6.73619e-04
Si 3.07654 3.55250 7.53534 0.90024 -3.17461e+01 -3.17396e+01 -3.26430e+01 -5.71339e-03 1.13104e-03 4.47110e-03
Si 4.61482 0.88807 7.53535 0.89609 -3.17451e+01 -3.17469e+01 -3.26418e+01 -1.09004e-02 9.33633e-04 3.99501e-03
Si 3.07652 5.32868 0.00229 7.49315 -3.51190e+01 -3.51155e+01 -2.76241e+01 -5.62565e-03 -2.30300e-03 -3.47796e-03
Si 3.07650 5.32868 5.02642 7.50683 -3.51267e+01 -3.51193e+01 -2.76162e+01 -8.24458e-03 6.10440e-04 1.78738e-03
Si 7.69137 2.66419 0.00228 7.48978 -3.51109e+01 -3.51274e+01 -2.76294e+01 -1.02231e-02 -3.54825e-03 -7.73864e-03
Si 6.15304 1.77609 2.51118 0.89386 -3.17511e+01 -3.17620e+01 -3.26500e+01 -1.32092e-02 -5.54022e-03 -4.39763e-03
Si 7.69124 4.44031 2.51112 0.89984 -3.17547e+01 -3.17651e+01 -3.26583e+01 -2.40814e-02 -1.28603e-02 -1.11056e-02
Si 7.69127 2.66403 5.02639 7.51542 -3.51261e+01 -3.51437e+01 -2.76197e+01 -2.88650e-02 -6.68703e-03 -6.07806e-03
Si 6.15306 3.55232 7.53533 0.89368 -3.17486e+01 -3.17396e+01 -3.26370e+01 -1.93950e-02 1.36179e-03 7.47945e-03
Si 7.69136 0.88784 7.53533 0.88584 -3.17457e+01 -3.17667e+01 -3.26408e+01 -2.45614e-02 -1.72837e-04 2.52663e-03
Si 6.15304 5.32859 0.00228 7.48599 -3.51161e+01 -3.51175e+01 -2.76309e+01 -1.08921e-02 -5.01693e-03 -6.08799e-03
Si 6.15297 5.32849 5.02639 7.51478 -3.51347e+01 -3.51255e+01 -2.76155e+01 -2.40063e-02 -2.39676e-03 -1.48590e-03
C 0.00000 1.77622 0.62871 0.91803 3.66686e+01 3.66666e+01 3.57496e+01 -2.34620e-09 -2.07544e-09 -9.08014e-04
C 1.53825 4.44057 0.62870 0.91747 3.66662e+01 3.66684e+01 3.57498e+01 -2.24925e-03 -1.07854e-03 -2.18127e-03
C 0.00000 0.00000 3.13739 7.46916 3.46561e+01 3.46518e+01 4.21231e+01 -6.78977e-09 -3.86512e-09 1.58726e-03
C 1.53826 2.66433 3.13738 7.46875 3.46545e+01 3.46540e+01 4.21230e+01 -2.98736e-03 -3.22429e-04 6.13117e-04
C 0.00000 3.55249 5.65283 0.92154 3.66695e+01 3.66706e+01 3.57485e+01 -1.68494e-09 -8.64247e-09 2.19645e-03
C 1.53827 0.88813 5.65284 0.92003 3.66709e+01 3.66669e+01 3.57489e+01 -2.98895e-03 4.22633e-05 2.02379e-03
C 0.00000 5.32870 3.13737 7.46806 3.46513e+01 3.46576e+01 4.21225e+01 -8.25297e-09 -3.46377e-10 3.29733e-04
C 3.07653 1.77620 0.62870 0.91864 3.66698e+01 3.66659e+01 3.57493e+01 -3.38089e-03 -1.78613e-03 -1.39947e-03
C 4.61477 4.44051 0.62868 0.91968 3.66686e+01 3.66670e+01 3.57482e+01 -6.41027e-03 -3.88631e-03 -3.92998e-03
C 4.61478 2.66426 3.13737 7.47004 3.46560e+01 3.46523e+01 4.21242e+01 -8.90944e-03 -1.90733e-03 -1.52977e-03
C 3.07653 3.55245 5.65283 0.92123 3.66704e+01 3.66707e+01 3.57494e+01 -6.91931e-03 2.11072e-04 2.37640e-03
C 4.61481 0.88804 5.65284 0.91752 3.66720e+01 3.66644e+01 3.57508e+01 -9.45747e-03 1.54511e-04 1.03223e-03
C 3.07650 5.32866 3.13736 7.46758 3.46526e+01 3.46582e+01 4.21230e+01 -7.27970e-03 -1.10342e-03 -5.83372e-04
C 6.15307 1.77613 0.62868 0.92117 3.66735e+01 3.66628e+01 3.57471e+01 -6.51034e-03 -4.42431e-03 -3.18315e-03
C 7.69131 4.44040 0.62864 0.92850 3.66761e+01 3.66641e+01 3.57420e+01 -8.93781e-03 -8.79056e-03 -7.74254e-03
C 7.69132 2.66410 3.13733 7.47173 3.46598e+01 3.46452e+01 4.21242e+01 -1.48047e-02 -4.92624e-03 -7.52768e-03
C 6.15305 3.55227 5.65281 0.91520 3.66705e+01 3.66673e+01 3.57542e+01 -1.73659e-02 -3.27495e-04 7.24096e-04
C 7.69136 0.88785 5.65282 0.91084 3.66742e+01 3.66528e+01 3.57534e+01 -1.72526e-02 1.15276e-04 -3.03191e-03
C 6.15300 5.32852 3.13732 7.46904 3.46553e+01 3.46578e+01 4.21255e+01 -1.54617e-02 -3.87887e-03 -4.73090e-03
Si 1.53827 6.21690 7.53532 0.90152 -3.17459e+01 -3.17407e+01 -3.26448e+01 -2.58941e-03 7.69814e-04 3.13897e-03
Si 4.61480 6.21683 7.53531 0.90182 -3.17482e+01 -3.17321e+01 -3.26417e+01 -8.19888e-03 2.68846e-03 6.28830e-03
Si 7.69128 6.21650 7.53528 0.88605 -3.17571e+01 -3.17307e+01 -3.26271e+01 -3.75107e-02 2.17115e-03 1.11890e-02
C 1.53826 6.21686 5.65281 0.92316 3.66682e+01 3.66753e+01 3.57486e+01 -2.97380e-03 5.37486e-04 1.93023e-03
C 4.61477 6.21676 5.65280 0.92211 3.66681e+01 3.66764e+01 3.57504e+01 -1.26720e-02 6.69574e-04 2.29367e-03
C 7.69126 6.21646 5.65274 0.91279 3.66695e+01 3.66772e+01 3.57621e+01 -3.03492e-02 -1.91821e-03 -3.12344e-03
Si 10.76800 2.66409 0.00227 7.48545 -3.51040e+01 -3.51330e+01 -2.76331e+01 -8.95738e-03 -2.86818e-03 -1.10337e-02
Si 9.22962 1.77598 2.51115 0.89961 -3.17410e+01 -3.17664e+01 -3.26525e+01 -1.49202e-02 -7.32150e-03 -8.22597e-03
Si 10.76780 4.44016 2.51107 0.91408 -3.17356e+01 -3.17687e+01 -3.26643e+01 -2.09474e-02 -1.23569e-02 -1.68521e-02
Si 10.76790 2.66380 5.02633 7.50648 -3.51084e+01 -3.51562e+01 -2.76261e+01 -2.76962e-02 -9.70343e-03 -1.46296e-02
Si 9.22955 3.55186 7.53529 0.86753 -3.17529e+01 -3.17947e+01 -3.26362e+01 -4.98846e-02 -2.51142e-03 3.37501e-03
Si 10.76800 0.88758 7.53530 0.87737 -3.17420e+01 -3.17941e+01 -3.26432e+01 -2.43833e-02 -6.88503e-04 -3.35750e-03
Si 9.22961 5.32845 0.00224 7.47300 -3.51077e+01 -3.51251e+01 -2.76435e+01 -1.44927e-02 -5.46208e-03 -1.56591e-02
Si 9.22941 5.32807 5.02627 7.52359 -3.51370e+01 -3.51664e+01 -2.76290e+01 -5.80181e-02 -1.86712e-02 -1.97429e-02
Si 13.84470 2.66404 0.00227 7.48319 -3.50995e+01 -3.51368e+01 -2.76351e+01 -3.68439e-03 -1.31422e-03 -1.22642e-02
Si 12.30630 1.77590 2.51113 0.90710 -3.17301e+01 -3.17680e+01 -3.26552e+01 -9.29676e-03 -5.28639e-03 -1.07494e-02
Si 13.84460 4.44008 2.51104 0.92929 -3.17161e+01 -3.17681e+01 -3.26695e+01 -8.05050e-03 -6.54791e-03 -1.99379e-02
Si 13.84460 2.66365 5.02629 7.49587 -3.50959e+01 -3.51626e+01 -2.76338e+01 -1.16141e-02 -4.28162e-03 -2.21470e-02
Si 12.30620 3.55145 7.53520 0.85656 -3.17415e+01 -3.18501e+01 -3.26446e+01 -3.43281e-02 -1.89785e-03 -1.65296e-02
Si 13.84460 0.88740 7.53527 0.86970 -3.17386e+01 -3.18158e+01 -3.26440e+01 -1.10424e-02 -3.94253e-04 -7.81127e-03
Si 12.30630 5.32834 0.00224 7.46458 -3.50977e+01 -3.51312e+01 -2.76501e+01 -9.53246e-03 -3.81416e-03 -1.88134e-02
Si 12.30610 5.32773 5.02616 7.49330 -3.50932e+01 -3.51848e+01 -2.76468e+01 -3.99747e-02 -1.82860e-02 -4.13243e-02
C 9.22966 1.77605 0.62866 0.92586 3.66809e+01 3.66602e+01 3.57450e+01 -6.58108e-03 -4.91684e-03 -5.53806e-03
C 10.76790 4.44030 0.62860 0.94045 3.66886e+01 3.66611e+01 3.57351e+01 -7.78048e-03 -8.00826e-03 -1.18669e-02
C 10.76790 2.66396 3.13729 7.46976 3.46664e+01 3.46386e+01 4.21221e+01 -1.36955e-02 -6.16200e-03 -1.59317e-02
C 9.22957 3.55193 5.65276 0.89960 3.66734e+01 3.66421e+01 3.57604e+01 -3.12897e-02 -4.89003e-04 -1.07907e-02
C 10.76800 0.88764 5.65279 0.90530 3.66782e+01 3.66394e+01 3.57547e+01 -1.58494e-02 -1.25186e-04 -9.66411e-03
C 9.22952 5.32828 3.13723 7.46882 3.46596e+01 3.46479e+01 4.21223e+01 -2.31535e-02 -1.11286e-02 -2.06840e-02
C 12.30630 1.77599 0.62865 0.93256 3.66887e+01 3.66588e+01 3.57417e+01 -4.18676e-03 -3.28948e-03 -7.09154e-03
C 13.84460 4.44024 0.62859 0.95173 3.66980e+01 3.66592e+01 3.57278e+01 -3.09366e-03 -3.76249e-03 -1.39792e-02
C 13.84460 2.66388 3.13725 7.46489 3.46718e+01 3.46356e+01 4.21184e+01 -5.63269e-03 -2.76784e-03 -2.16213e-02
C 12.30620 3.55163 5.65268 0.89462 3.66815e+01 3.66226e+01 3.57607e+01 -2.11648e-02 -7.19650e-04 -2.47977e-02
C 13.84460 0.88752 5.65276 0.90126 3.66816e+01 3.66313e+01 3.57567e+01 -6.03950e-03 -2.08080e-04 -1.48335e-02
C 12.30620 5.32809 3.13714 7.45742 3.46727e+01 3.46415e+01 4.21141e+01 -1.80382e-02 -1.11060e-02 -3.38846e-02
Si 10.76760 6.21549 7.53513 0.82881 -3.17664e+01 -3.18936e+01 -3.26254e+01 -1.18172e-01 -6.52252e-03 -5.50690e-03
Si 13.84460 6.21488 7.53490 0.85534 -3.17368e+01 -3.19330e+01 -3.26666e+01 -3.84964e-03 -1.44945e-03 -6.02876e-02
C 10.76770 6.21578 5.65258 0.88214 3.66737e+01 3.66249e+01 3.57756e+01 -5.30981e-02 2.16755e-03 -3.88601e-02
C 13.84450 6.21538 5.65241 0.89072 3.66875e+01 3.65853e+01 3.57592e+01 -2.87257e-02 -5.07872e-03 -6.72075e-02
Si 1.53824 7.99309 0.00228 7.49246 -3.51232e+01 -3.51100e+01 -2.76241e+01 -3.30143e-03 -1.63757e-03 -3.59696e-03
Si 0.00000 7.10494 2.51118 0.89014 -3.17628e+01 -3.17487e+01 -3.26458e+01 -1.89894e-09 -2.61831e-10 -1.02870e-03
Si 1.53820 9.76932 2.51116 0.89071 -3.17712e+01 -3.17446e+01 -3.26483e+01 -5.25512e-03 -1.47932e-03 -2.13390e-03
Si 1.53824 7.99310 5.02641 7.50536 -3.51288e+01 -3.51156e+01 -2.76169e+01 -4.29086e-03 3.72563e-04 1.81288e-03
Si 0.00000 8.88129 7.53530 0.90164 -3.17454e+01 -3.17401e+01 -3.26444e+01 5.86942e-09 -3.47918e-09 1.49921e-03
Si 0.00000 10.65750 0.00226 7.49042 -3.51286e+01 -3.51047e+01 -2.76263e+01 2.30748e-09 -1.18686e-09 -3.65224e-03
Si 0.00000 12.43380 2.51112 0.89119 -3.17836e+01 -3.17387e+01 -3.26515e+01 -2.87623e-09 4.53475e-09 -3.89226e-03
Si 0.00000 10.65750 5.02639 7.51129 -3.51392e+01 -3.51127e+01 -2.76147e+01 2.00073e-09 -5.19231e-09 9.44098e-04
Si 1.53824 11.54570 7.53529 0.90096 -3.17440e+01 -3.17327e+01 -3.26392e+01 -5.11109e-03 2.88679e-03 -9.74550e-04
Si 4.61473 7.99303 0.00228 7.48645 -3.51217e+01 -3.51102e+01 -2.76295e+01 -9.45644e-03 -4.12345e-03 -4.60300e-03
Si 3.07646 7.10490 2.51117 0.89132 -3.17640e+01 -3.17492e+01 -3.26477e+01 -9.07347e-03 -2.08079e-03 -2.22823e-03
Si 4.61460 9.76924 2.51113 0.89755 -3.17740e+01 -3.17445e+01 -3.26559e+01 -1.66883e-02 -6.36248e-03 -4.86663e-03
Si 4.61470 7.99300 5.02638 7.50730 -3.51352e+01 -3.51150e+01 -2.76178e+01 -1.56243e-02 8.49579e-04 8.63556e-04
Si 3.07653 8.88128 7.53528 0.90473 -3.17458e+01 -3.17379e+01 -3.26465e+01 -4.50069e-03 2.28738e-03 2.51557e-03
Si 3.07645 10.65750 0.00226 7.48587 -3.51280e+01 -3.51041e+01 -2.76302e+01 -6.72462e-03 -3.51513e-03 -4.12306e-03
Si 3.07633 12.43370 2.51110 0.89695 -3.17846e+01 -3.17393e+01 -3.26575e+01 -1.31584e-02 -8.94226e-03 -5.81517e-03
Si 3.07641 10.65750 5.02636 7.50966 -3.51412e+01 -3.51117e+01 -2.76169e+01 -1.23349e-02 2.02911e-04 1.19791e-03
Si 4.61472 11.54570 7.53521 0.90916 -3.17481e+01 -3.17258e+01 -3.26452e+01 -1.94316e-02 4.92059e-03 3.22932e-04
Si 7.69125 7.99292 0.00225 7.46521 -3.51163e+01 -3.51096e+01 -2.76478e+01 -1.40266e-02 -9.82742e-03 -6.57720e-03
Si 6.15290 7.10476 2.51113 0.89849 -3.17676e+01 -3.17507e+01 -3.26566e+01 -2.08108e-02 -9.57156e-03 -7.98359e-03
Si 7.69101 9.76906 2.51104 0.92359 -3.17819e+01 -3.17372e+01 -3.26796e+01 -3.02801e-02 -2.26607e-02 -1.64986e-02
Si 7.69110 7.99269 5.02627 7.51946 -3.51561e+01 -3.51215e+01 -2.76199e+01 -4.50517e-02 -9.62766e-03 -1.06706e-02
Si 6.15305 8.88117 7.53521 0.90984 -3.17526e+01 -3.17221e+01 -3.26462e+01 -1.84883e-02 3.39134e-03 5.42638e-03
Si 6.15291 10.65740 0.00227 7.46928 -3.51253e+01 -3.51033e+01 -2.76451e+01 -1.29137e-02 -6.14681e-03 -5.30198e-03
Si 6.15267 12.43360 2.51103 0.92276 -3.17830e+01 -3.17386e+01 -3.26800e+01 -3.09530e-02 -2.39868e-02 -1.29938e-02
Si 6.15278 10.65730 5.02627 7.50938 -3.51589e+01 -3.51098e+01 -2.76253e+01 -3.57786e-02 -6.49340e-03 -3.66307e-03
Si 7.69120 11.54560 7.53497 0.96460 -3.17360e+01 -3.16771e+01 -3.26652e+01 -4.63800e-02 2.45622e-02 1.43133e-02
C 0.00000 7.10495 0.62868 0.91755 3.66625e+01 3.66718e+01 3.57497e+01 4.61740e-09 -5.96372e-09 -3.06297e-03
C 1.53822 9.76935 0.62866 0.91889 3.66582e+01 3.66765e+01 3.57486e+01 -2.71687e-03 -1.57166e-03 -3.83422e-03
C 1.53823 7.99308 3.13735 7.46748 3.46472e+01 3.46628e+01 4.21225e+01 -4.12122e-03 -7.42752e-04 -5.27415e-04
C 0.00000 8.88126 5.65280 0.92363 3.66655e+01 3.66796e+01 3.57490e+01 -2.45991e-09 6.44226e-10 9.48721e-04
C 0.00000 12.43380 0.62863 0.92081 3.66533e+01 3.66818e+01 3.57471e+01 -1.44165e-09 -1.07511e-08 -4.72644e-03
C 0.00000 10.65750 3.13733 7.46883 3.46417e+01 3.46696e+01 4.21245e+01 -8.44293e-09 -4.52608e-09 -1.23977e-03
C 1.53821 11.54570 5.65278 0.92052 3.66568e+01 3.66882e+01 3.57524e+01 -4.75917e-03 5.79011e-04 -5.03220e-04
C 3.07648 7.10492 0.62867 0.91905 3.66634e+01 3.66713e+01 3.57484e+01 -5.55355e-03 -2.57879e-03 -3.70403e-03
C 4.61467 9.76929 0.62864 0.92789 3.66618e+01 3.66774e+01 3.57420e+01 -7.53078e-03 -5.51664e-03 -5.22812e-03
C 4.61469 7.99299 3.13732 7.46575 3.46487e+01 3.46641e+01 4.21221e+01 -1.35736e-02 -2.44655e-03 -2.28528e-03
C 3.07648 8.88123 5.65278 0.92478 3.66644e+01 3.66813e+01 3.57483e+01 -8.18526e-03 1.39859e-03 1.28168e-03
C 3.07640 12.43380 0.62862 0.92772 3.66561e+01 3.66839e+01 3.57427e+01 -3.67963e-03 -6.27079e-03 -5.43139e-03
C 3.07641 10.65750 3.13731 7.46699 3.46409e+01 3.46711e+01 4.21229e+01 -9.20845e-03 -2.68381e-03 -1.48523e-03
C 4.61461 11.54560 5.65270 0.93034 3.66609e+01 3.66971e+01 3.57496e+01 -1.55827e-02 3.17639e-03 1.55144e-03
C 6.15297 7.10483 0.62864 0.92821 3.66691e+01 3.66716e+01 3.57425e+01 -9.38534e-03 -7.16298e-03 -7.08187e-03
C 7.69115 9.76918 0.62860 0.95268 3.66731e+01 3.66811e+01 3.57250e+01 -9.30478e-03 -1.20994e-02 -1.12868e-02
C 7.69116 7.99278 3.13722 7.46157 3.46555e+01 3.46720e+01 4.21251e+01 -2.45094e-02 -1.02565e-02 -1.05149e-02
C 6.15296 8.88107 5.65271 0.93161 3.66688e+01 3.66896e+01 3.57484e+01 -2.02801e-02 3.14926e-03 2.30328e-03
C 6.15283 12.43370 0.62858 0.95235 3.66661e+01 3.66883e+01 3.57255e+01 -6.29320e-03 -1.37574e-02 -7.21519e-03
C 6.15281 10.65730 3.13723 7.45866 3.46452e+01 3.46761e+01 4.21192e+01 -1.99589e-02 -6.79208e-03 -4.38938e-03
C 7.69100 11.54540 5.65249 0.95730 3.66244e+01 3.67043e+01 3.57169e+01 -6.31467e-02 -2.21725e-02 -1.29154e-02
Si 10.76790 7.99275 0.00222 7.43076 -3.50990e+01 -3.51116e+01 -2.76747e+01 -1.34748e-02 -6.66563e-03 -2.51936e-02
Si 9.22937 7.10449 2.51097 0.93063 -3.17615e+01 -3.17681e+01 -3.26897e+01 -4.07159e-02 -3.36673e-02 -2.73001e-02
Si 10.76740 9.76869 2.51069 1.03338 -3.17672e+01 -3.17334e+01 -3.27678e+01 -4.33473e-02 -7.57656e-02 -5.43510e-02
Si 10.76740 7.99184 5.02587 7.50705 -3.51544e+01 -3.52034e+01 -2.76759e+01 -1.13650e-01 -5.77758e-02 -5.77624e-02
Si 9.22949 8.88050 7.53507 0.91417 -3.17524e+01 -3.16707e+01 -3.26172e+01 -5.43644e-02 9.83971e-03 2.01967e-02
Si 9.22944 10.65730 0.00227 7.42204 -3.51159e+01 -3.50953e+01 -2.76837e+01 -1.05911e-02 -1.64901e-02 9.69359e-04
Si 9.22912 12.43350 2.51095 0.99318 -3.17342e+01 -3.16994e+01 -3.27075e+01 -2.36446e-02 -2.36299e-02 -1.49148e-02
Si 9.22909 10.65690 5.02605 7.49575 -3.51699e+01 -3.50664e+01 -2.76235e+01 -5.29741e-02 -5.44492e-03 -7.73078e-03
Si 10.76770 11.54430 7.53470 1.03386 -3.18028e+01 -3.15555e+01 -3.25726e+01 -2.55034e-01 -9.91255e-02 -5.05458e-03
Si 13.84460 7.99264 0.00225 7.41247 -3.50867e+01 -3.51197e+01 -2.76910e+01 -6.04601e-03 -2.85265e-03 -3.06201e-02
Si 12.30610 7.10431 2.51091 0.95821 -3.17148e+01 -3.17688e+01 -3.26949e+01 -2.96931e-02 -1.70250e-02 -3.64395e-02
Si 13.84430 9.76846 2.51066 1.05166 -3.16712e+01 -3.17302e+01 -3.27476e+01 -2.52015e-02 -2.78398e-02 -3.28568e-02
Si 13.84440 7.99143 5.02578 7.42554 -3.50528e+01 -3.51752e+01 -2.76905e+01 -4.15509e-02 1.12599e-02 -6.77603e-02
Si 12.30550 8.87788 7.53431 0.98251 -3.18303e+01 -3.22701e+01 -3.27477e+01 -2.81004e-01 -2.53991e-02 -1.77883e-01
Si 12.30620 10.65720 0.00244 7.38538 -3.50841e+01 -3.50646e+01 -2.76890e+01 5.11647e-03 -7.55174e-03 3.26713e-04
Si 12.30580 12.43320 2.51102 1.18172 -3.16511e+01 -3.16299e+01 -3.28192e+01 -7.62762e-03 -3.12345e-02 -3.56656e-02
Si 12.30500 10.65520 5.02497 7.42091 -3.52417e+01 -3.52651e+01 -2.78617e+01 -2.41774e-01 -2.22378e-01 -1.90493e-01
Si 13.84230 11.53780 7.53136 2.26742 -3.18473e+01 -3.22929e+01 -3.34307e+01 -9.48228e-01 8.68838e-02 -3.74632e-01
C 9.22951 7.10468 0.62855 0.95671 3.66817e+01 3.66689e+01 3.57197e+01 -8.92050e-03 -1.91759e-02 -1.54823e-02
C 10.76770 9.76902 0.62842 1.03288 3.66958e+01 3.66816e+01 3.56582e+01 5.58777e-04 -3.12768e-02 -2.44673e-02
C 10.76760 7.99240 3.13692 7.43090 3.46612e+01 3.46661e+01 4.20936e+01 -3.46564e-02 -3.05536e-02 -5.26294e-02
C 9.22941 8.88055 5.65251 0.92637 3.66577e+01 3.66997e+01 3.57615e+01 -6.61568e-02 -1.53021e-02 -2.41494e-02
C 9.22937 12.43360 0.62860 1.00348 3.66908e+01 3.66987e+01 3.56915e+01 -2.24789e-03 -9.12204e-03 -6.57644e-03
C 9.22925 10.65710 3.13703 7.43830 3.46456e+01 3.46907e+01 4.21057e+01 -4.09049e-02 -2.90432e-02 -2.03530e-02
C 10.76740 11.54470 5.65206 0.98582 3.66626e+01 3.68188e+01 3.57828e+01 -9.58808e-02 -3.97130e-02 -3.48002e-02
C 12.30620 7.10456 0.62851 0.97751 3.67015e+01 3.66661e+01 3.57076e+01 -7.57871e-03 -9.82595e-03 -1.97501e-02
C 13.84450 9.76888 0.62846 1.07164 3.67113e+01 3.66757e+01 3.56241e+01 -2.01939e-03 -1.38300e-02 -3.31254e-02
C 13.84450 7.99217 3.13685 7.41457 3.46893e+01 3.46352e+01 4.20754e+01 -2.41714e-02 -4.50501e-03 -7.74321e-02
C 12.30570 8.87915 5.65190 0.94410 3.66671e+01 3.66308e+01 3.57582e+01 -1.02736e-01 1.52673e-02 -1.46691e-01
C 12.30610 12.43360 0.62882 1.12468 3.67015e+01 3.67102e+01 3.55815e+01 -2.61570e-03 1.09060e-02 -1.00808e-02
C 12.30570 10.65650 3.13640 7.26928 3.46677e+01 3.46983e+01 4.19469e+01 -4.98149e-02 -1.09982e-01 -1.06636e-01
C 13.84360 11.54140 5.65008 1.34886 3.65946e+01 3.66367e+01 3.53504e+01 -1.23336e-01 1.75460e-01 -1.62453e-01
Si 1.53820 13.32200 0.00223 7.48343 -3.51355e+01 -3.50989e+01 -2.76338e+01 -2.89233e-03 -2.85822e-03 -3.58506e-03
Si 1.53812 15.09820 2.51106 0.89993 -3.18031e+01 -3.17272e+01 -3.26624e+01 -4.22593e-03 -8.87345e-03 -8.05298e-03
Si 1.53814 13.32200 5.02635 7.52409 -3.51659e+01 -3.51067e+01 -2.76124e+01 -8.47519e-03 -2.14558e-03 -1.47966e-03
Si 0.00000 14.21020 7.53531 0.88541 -3.17690e+01 -3.17178e+01 -3.26277e+01 9.93659e-10 1.27580e-09 -5.13895e-03
Si 0.00000 15.98650 0.00221 7.48307 -3.51458e+01 -3.50947e+01 -2.76373e+01 1.37532e-10 8.80221e-11 1.79906e-03
Si 0.00000 17.76280 2.51106 0.90415 -3.17932e+01 -3.17210e+01 -3.26591e+01 -9.96969e-10 2.46457e-09 -3.63163e-03
Si 0.00000 15.98650 5.02630 7.53002 -3.52062e+01 -3.50929e+01 -2.76202e+01 -4.65546e-10 -3.13843e-09 -6.05511e-03
Si 1.53795 16.87480 7.53525 0.85602 -3.18608e+01 -3.17095e+01 -3.26310e+01 -2.65876e-03 -3.15176e-04 -6.51890e-03
Si 4.61462 13.32190 0.00223 7.46440 -3.51303e+01 -3.50967e+01 -2.76492e+01 -8.30303e-03 -7.68165e-03 -7.07226e-03
Si 4.61433 15.09820 2.51094 0.92987 -3.18142e+01 -3.17215e+01 -3.26912e+01 -1.52813e-02 -3.67556e-02 -1.69446e-02
Si 4.61438 13.32190 5.02625 7.52399 -3.51805e+01 -3.51040e+01 -2.76188e+01 -3.33857e-02 -1.39020e-02 -3.25744e-03
Si 3.07627 14.21020 7.53527 0.88154 -3.17770e+01 -3.17114e+01 -3.26228e+01 -2.36263e-02 7.62999e-03 -5.11355e-03
Si 3.07637 15.98650 0.00219 7.47131 -3.51439e+01 -3.50924e+01 -2.76470e+01 -6.49171e-04 -1.12346e-02 2.87446e-03
Si 3.07625 17.76280 2.51101 0.91460 -3.17925e+01 -3.17173e+01 -3.26668e+01 1.97229e-03 -1.54070e-02 -3.46124e-03
Si 3.07603 15.98650 5.02623 7.53248 -3.52317e+01 -3.50868e+01 -2.76280e+01 -1.27754e-02 -2.33626e-02 -7.88319e-03
Si 4.61361 16.87490 7.53511 0.82710 -3.19801e+01 -3.16898e+01 -3.26227e+01 -1.59190e-03 -8.94814e-03 -4.17842e-03
Si 7.69111 13.32180 0.00226 7.42181 -3.51150e+01 -3.50969e+01 -2.76843e+01 -1.21384e-02 -5.73763e-03 -1.65524e-02
Si 7.69055 15.09810 2.51067 1.03281 -3.17881e+01 -3.17158e+01 -3.27688e+01 -3.42904e-02 -8.29731e-02 -3.93973e-02
Si 7.69057 13.32170 5.02604 7.49729 -3.51459e+01 -3.50930e+01 -2.76232e+01 -6.81859e-02 -8.80895e-03 -1.10217e-03
Si 6.15241 14.21030 7.53506 0.91141 -3.17438e+01 -3.16806e+01 -3.26154e+01 -5.91548e-02 2.13259e-02 -2.24088e-03
Si 6.15278 15.98650 0.00219 7.43023 -3.51273e+01 -3.50852e+01 -2.76762e+01 -1.57825e-03 -2.22352e-02 6.17745e-03
Si 6.15251 17.76280 2.51087 0.95826 -3.17907e+01 -3.16969e+01 -3.26964e+01 8.35996e-03 -3.67120e-02 2.48790e-03
Si 6.15180 15.98650 5.02585 7.51187 -3.53028e+01 -3.50634e+01 -2.76756e+01 -3.31682e-02 -7.71234e-02 -2.21146e-02
Si 7.68817 16.87560 7.53430 0.98688 -3.24136e+01 -3.16933e+01 -3.27465e+01 5.09061e-02 -1.66927e-01 6.62030e-02
C 1.53818 15.09830 0.62858 0.92936 3.66500e+01 3.66881e+01 3.57404e+01 1.89599e-04 -5.22571e-03 -6.41343e-03
C 1.53816 13.32200 3.13728 7.47200 3.46332e+01 3.46794e+01 4.21282e+01 -4.73404e-03 -3.18660e-03 -2.29125e-03
C 0.00000 14.21020 5.65277 0.90862 3.66373e+01 3.66989e+01 3.57610e+01 1.61785e-09 -4.11005e-09 -1.61446e-03
C 0.00000 17.76280 0.62858 0.93218 3.66516e+01 3.66925e+01 3.57405e+01 2.87563e-09 -8.34965e-09 -2.34245e-03
C 0.00000 15.98650 3.13724 7.47742 3.46182e+01 3.46809e+01 4.21268e+01 -9.39520e-09 -1.54751e-09 -7.35572e-04
C 1.53801 16.87480 5.65272 0.88937 3.65983e+01 3.67031e+01 3.57661e+01 -1.35375e-03 -6.84105e-03 6.12616e-03
C 4.61454 15.09820 0.62851 0.95644 3.66577e+01 3.66921e+01 3.57197e+01 1.29085e-03 -1.95625e-02 -1.08396e-02
C 4.61448 13.32190 3.13719 7.46366 3.46382e+01 3.46875e+01 4.21263e+01 -1.64298e-02 -1.26367e-02 -4.63126e-03
C 3.07624 14.21020 5.65272 0.90880 3.66378e+01 3.67059e+01 3.57653e+01 -1.45191e-02 -3.94085e-03 -6.51600e-04
C 3.07636 17.76280 0.62855 0.94203 3.66543e+01 3.66954e+01 3.57337e+01 4.72412e-03 -9.56217e-03 -1.89607e-03
C 3.07622 15.98650 3.13718 7.47294 3.46182e+01 3.46849e+01 4.21242e+01 -5.66946e-03 -1.89309e-02 3.25021e-05
C 4.61391 16.87490 5.65256 0.87727 3.65759e+01 3.67139e+01 3.57783e+01 -4.94468e-03 -3.13776e-02 2.13709e-02
C 7.69098 15.09820 0.62840 1.03257 3.66804e+01 3.66961e+01 3.56580e+01 7.11928e-03 -3.46056e-02 -1.65161e-02
C 7.69082 13.32180 3.13702 7.43920 3.46377e+01 3.46977e+01 4.21062e+01 -3.74568e-02 -3.12669e-02 -1.59089e-02
C 6.15242 14.21020 5.65250 0.92418 3.66237e+01 3.67311e+01 3.57631e+01 -4.87186e-02 -2.86496e-02 -1.55797e-03
C 6.15276 17.76280 0.62848 0.97812 3.66625e+01 3.67040e+01 3.57065e+01 9.95151e-03 -1.94140e-02 6.01254e-04
C 6.15239 15.98650 3.13690 7.43375 3.46263e+01 3.46984e+01 4.20951e+01 -1.87509e-02 -5.85849e-02 -9.26453e-04
C 7.68937 16.87510 5.65189 0.94290 3.65417e+01 3.67514e+01 3.57591e+01 -3.46738e-02 -1.18889e-01 8.67073e-02
Si 10.76780 13.32180 0.00259 7.40693 -3.50888e+01 -3.50769e+01 -2.76760e+01 -5.64267e-03 9.35081e-03 4.23424e-03
Si 10.76730 15.09810 2.51102 1.18132 -3.16481e+01 -3.16345e+01 -3.28197e+01 -1.09810e-02 -4.52516e-02 -1.03733e-02
Si 10.76700 13.32140 5.02565 7.35873 -3.51569e+01 -3.49794e+01 -2.77215e+01 -1.47467e-01 -1.49239e-01 -8.63345e-02
Si 9.22842 14.21050 7.53469 1.03363 -3.18435e+01 -3.15163e+01 -3.25722e+01 -2.32441e-01 -5.41153e-02 -8.36566e-02
Si 9.22941 15.98640 0.00243 7.38542 -3.50707e+01 -3.50793e+01 -2.76896e+01 -5.11013e-03 -1.84641e-03 -7.35427e-03
Si 9.22881 17.76290 2.51064 1.05231 -3.17439e+01 -3.16593e+01 -3.27486e+01 1.35757e-02 -4.08240e-02 -8.39245e-03
Si 9.22712 15.98650 5.02496 7.42368 -3.54772e+01 -3.50337e+01 -2.78614e+01 -1.09127e-01 -2.75160e-01 -9.83343e-02
Si 10.76010 16.87650 7.53136 2.27136 -3.30089e+01 -3.11344e+01 -3.34305e+01 -2.79911e-01 -2.80634e-01 2.61914e-01
Si 13.84470 13.32210 0.00350 7.52747 -3.50794e+01 -3.50111e+01 -2.75213e+01 1.19918e-02 1.98343e-02 1.27295e-01
Si 13.84480 15.09840 2.51410 0.96164 -3.15508e+01 -3.15182e+01 -3.22208e+01 -2.23085e-02 3.36175e-01 1.93556e-01
Si 13.84380 13.31850 5.02632 6.91506 -3.47912e+01 -3.51464e+01 -2.81472e+01 -3.97848e-01 -3.15682e-01 -3.72154e-01
Si 12.30300 14.20820 7.53178 5.93342 -3.00487e+01 -3.09913e+01 -3.27780e+01 8.21047e-01 2.61829e+00 1.51130e+00
Si 12.30650 15.98640 0.00350 7.52748 -3.50223e+01 -3.50690e+01 -2.75217e+01 -2.20219e-02 1.21268e-01 -4.70720e-02
Si 13.84480 18.65090 0.00350 7.52796 -3.50430e+01 -3.50487e+01 -2.75214e+01 -3.39853e-02 1.01411e-01 -8.04694e-02
Si 12.30560 17.76320 2.51141 1.05872 -3.16842e+01 -3.16949e+01 -3.27455e+01 -1.54712e-02 3.58592e-02 -2.07664e-02
Si 12.30290 15.98740 5.02632 6.91644 -3.54081e+01 -3.45309e+01 -2.81474e+01 -4.25127e-02 -4.79728e-01 -8.81793e-02
C 10.76770 15.09820 0.62881 1.12464 3.67019e+01 3.67100e+01 3.55816e+01 -3.61839e-03 -2.07409e-03 1.32914e-02
C 10.76740 13.32160 3.13687 7.33150 3.46867e+01 3.47423e+01 4.20449e+01 -4.23609e-02 -4.55889e-02 -2.70062e-02
C 9.22857 14.21010 5.65205 0.98500 3.66909e+01 3.67895e+01 3.57830e+01 -1.13107e-01 -4.97274e-02 -1.75447e-02
C 9.22926 17.76290 0.62844 1.07215 3.66787e+01 3.67079e+01 3.56234e+01 1.41706e-02 -3.37246e-02 3.63686e-03
C 9.22854 15.98640 3.13639 7.27066 3.46419e+01 3.47234e+01 4.19479e+01 -3.66738e-02 -1.45924e-01 -4.25725e-02
C 10.76380 16.87580 5.65007 1.34752 3.65122e+01 3.67153e+01 3.53507e+01 -7.83704e-02 -5.24089e-02 2.33105e-01
C 13.84490 15.09840 0.63088 0.84872 3.67299e+01 3.67769e+01 3.59661e+01 -3.66234e-02 1.54226e-01 8.84240e-02
C 13.84450 13.32090 3.13752 7.35930 3.46132e+01 3.47105e+01 4.20196e+01 -6.17750e-02 1.18398e-02 -3.36003e-02
C 12.30520 14.20950 5.65076 2.23603 3.69846e+01 3.71470e+01 3.48571e+01 -1.35489e-01 1.07980e-01 6.18642e-02
C 12.30610 17.76290 0.62918 1.13757 3.67087e+01 3.67049e+01 3.55693e+01 -8.32719e-03 -4.20676e-03 2.06346e-03
C 12.30530 15.98680 3.13752 7.35973 3.46276e+01 3.46948e+01 4.20194e+01 -7.09969e-02 -2.25098e-02 2.64582e-02
C 13.83570 16.87980 5.65916 7.39762 3.87548e+01 3.75203e+01 3.36190e+01 -1.07452e+00 -2.72486e+00 1.57337e+00
Si 0.00000 0.00010 10.05060 7.49419 -3.51141e+01 -3.51124e+01 -2.76191e+01 2.40649e-09 -3.74306e-09 1.92499e-03
Si 1.53828 2.66448 10.05060 7.49187 -3.51129e+01 -3.51073e+01 -2.76182e+01 -5.57520e-04 1.30272e-03 3.87858e-03
Si 0.00000 1.77639 12.55940 0.91623 -3.17345e+01 -3.17342e+01 -3.26506e+01 -3.90441e-09 2.22132e-10 7.82894e-04
Si 1.53832 4.44080 12.55940 0.92385 -3.17262e+01 -3.17282e+01 -3.26511e+01 2.84291e-03 9.23118e-04 1.74988e-03
Si 0.00000 5.32887 10.05050 7.49206 -3.51097e+01 -3.51090e+01 -2.76173e+01 -3.86639e-11 -5.86857e-09 4.47629e-03
Si 3.07656 0.00006 10.05060 7.49361 -3.51135e+01 -3.51112e+01 -2.76188e+01 -4.52191e-03 2.12333e-03 2.45951e-03
Si 4.61484 2.66441 10.05060 7.48922 -3.51137e+01 -3.50974e+01 -2.76164e+01 -5.41178e-03 4.66108e-03 6.23824e-03
Si 3.07659 1.77636 12.55940 0.91611 -3.17364e+01 -3.17324e+01 -3.26505e+01 -8.51827e-05 2.53870e-03 1.70044e-03
Si 4.61494 4.44078 12.55940 0.92587 -3.17299e+01 -3.17187e+01 -3.26500e+01 7.02284e-03 3.94927e-03 3.91089e-03
Si 3.07659 5.32887 10.05050 7.49029 -3.51111e+01 -3.51006e+01 -2.76156e+01 2.54202e-03 4.01841e-03 6.47535e-03
Si 7.69134 2.66416 10.05060 7.49860 -3.51177e+01 -3.51095e+01 -2.76151e+01 -2.35278e-02 6.53626e-03 1.13085e-02
Si 6.15315 1.77625 12.55940 0.91309 -3.17408e+01 -3.17335e+01 -3.26501e+01 -4.62416e-03 7.03998e-03 4.38353e-03
Si 7.69147 4.44063 12.55940 0.92198 -3.17399e+01 -3.17166e+01 -3.26495e+01 2.26858e-03 1.38062e-02 1.01660e-02
Si 6.15314 5.32880 10.05060 7.48040 -3.51132e+01 -3.50679e+01 -2.76104e+01 -5.33605e-05 1.07162e-02 1.27293e-02
C 0.00000 0.00007 8.16151 7.46764 3.46534e+01 3.46503e+01 4.21195e+01 4.66436e-09 -2.26714e-09 2.32777e-03
C 1.53827 2.66441 8.16150 7.46630 3.46521e+01 3.46548e+01 4.21198e+01 -3.24635e-03 1.11646e-03 3.71254e-03
C 0.00000 1.77636 10.67690 0.93198 3.66710e+01 3.66744e+01 3.57407e+01 2.09675e-10 3.04817e-10 1.74991e-03
C 1.53830 4.44076 10.67690 0.93776 3.66749e+01 3.66793e+01 3.57394e+01 7.56893e-04 2.48893e-03 3.44221e-03
C 0.00000 0.00012 13.18560 7.44911 3.46619e+01 3.46641e+01 4.21121e+01 -8.95805e-09 -3.49959e-09 -1.73450e-03
C 1.53830 2.66452 13.18560 7.44654 3.46639e+01 3.46677e+01 4.21124e+01 6.38986e-04 1.05275e-03 -1.30925e-03
C 0.00000 5.32880 8.16149 7.46507 3.46524e+01 3.46579e+01 4.21202e+01 1.19571e-08 -3.62732e-10 4.75795e-03
C 0.00000 5.32894 13.18550 7.44622 3.46691e+01 3.46653e+01 4.21134e+01 -9.37761e-09 -5.83137e-09 -7.05606e-04
C 3.07654 0.00002 8.16151 7.47005 3.46521e+01 3.46480e+01 4.21201e+01 -6.52407e-03 1.13787e-03 2.42897e-03
C 4.61479 2.66431 8.16151 7.47258 3.46466e+01 3.46514e+01 4.21215e+01 -1.30127e-02 2.49476e-03 4.88550e-03
C 3.07655 1.77633 10.67690 0.93103 3.66679e+01 3.66747e+01 3.57404e+01 -3.84673e-03 3.44400e-03 2.62500e-03
C 4.61486 4.44071 10.67690 0.93681 3.66639e+01 3.66872e+01 3.57391e+01 -1.62552e-03 8.22263e-03 5.59167e-03
C 3.07659 0.00009 13.18560 7.44759 3.46624e+01 3.46660e+01 4.21118e+01 -2.40216e-03 1.78544e-03 -7.70027e-04
C 4.61490 2.66449 13.18560 7.44123 3.46628e+01 3.46763e+01 4.21108e+01 -1.07360e-05 3.54863e-03 1.46637e-06
C 3.07653 5.32876 8.16149 7.46680 3.46490e+01 3.46595e+01 4.21210e+01 -5.48725e-03 3.03206e-03 5.99520e-03
C 3.07665 5.32895 13.18550 7.44314 3.46684e+01 3.46724e+01 4.21135e+01 6.20205e-03 1.86681e-03 -1.49165e-03
C 7.69127 2.66403 8.16151 7.48772 3.46440e+01 3.46288e+01 4.21239e+01 -3.42370e-02 1.96344e-03 5.03824e-03
C 6.15307 1.77617 10.67700 0.92431 3.66618e+01 3.66664e+01 3.57405e+01 -1.76725e-02 7.01255e-03 5.71409e-03
C 7.69130 4.44043 10.67700 0.91893 3.66447e+01 3.66660e+01 3.57390e+01 -3.21456e-02 1.61001e-02 1.37028e-02
C 7.69146 2.66434 13.18560 7.43793 3.46632e+01 3.46779e+01 4.21084e+01 -8.61561e-03 5.51871e-03 8.21692e-03
C 6.15301 5.32859 8.16148 7.48234 3.46331e+01 3.46543e+01 4.21259e+01 -2.38673e-02 4.93683e-03 8.97043e-03
C 6.15327 5.32895 13.18550 7.43190 3.46643e+01 3.46960e+01 4.21120e+01 8.96249e-03 6.35903e-03 -1.85435e-03